Variables =      x      y      z
  zone      T="outputdata"      i=101      j=101      k=1
  0.00000000   0.00000000   0.00
  0.00046600   0.00180364   0.00
  0.00107000   0.00349000   0.00
  0.00188664   0.00496127   0.00
  0.00296230   0.00631544   0.00
  0.00428000   0.00767000   0.00
  0.00582628   0.00911388   0.00
  0.00760162   0.01062181   0.00
  0.00961000   0.01214000   0.00
  0.01185418   0.01362360   0.00
  0.01433198   0.01506361   0.00
  0.01704000   0.01646000   0.00
  0.01997553   0.01781284   0.00
  0.02313862   0.01912264   0.00
  0.02653000   0.02039000   0.00
  0.03014962   0.02161578   0.00
  0.03399429   0.02280177   0.00
  0.03806000   0.02395000   0.00
  0.04234338   0.02506292   0.00
  0.04684349   0.02614471   0.00
  0.05156000   0.02720000   0.00
  0.05649204   0.02823254   0.00
  0.06163656   0.02924271   0.00
  0.06699000   0.03023000   0.00
  0.07254885   0.03119394   0.00
  0.07830989   0.03213409   0.00
  0.08427000   0.03305000   0.00
  0.09042628   0.03394095   0.00
  0.09677683   0.03480501   0.00
  0.10332000   0.03564000   0.00
  0.11005382   0.03644376   0.00
  0.11697501   0.03721437   0.00
  0.12408000   0.03795000   0.00
  0.13136475   0.03864922   0.00
  0.13882349   0.03931231   0.00
  0.14645000   0.03994000   0.00
  0.15424015   0.04053270   0.00
  0.16219808   0.04108971   0.00
  0.17033000   0.04161000   0.00
  0.17863429   0.04209293   0.00
  0.18707791   0.04253923   0.00
  0.19562000   0.04295000   0.00
  0.20424863   0.04332595   0.00
  0.21306769   0.04366633   0.00
  0.22221000   0.04397000   0.00
  0.23170081   0.04423623   0.00
  0.24113503   0.04446582   0.00
  0.25000000   0.04466000   0.00
  0.25818333   0.04481988   0.00
  0.26717368   0.04494630   0.00
  0.27886000   0.04504000   0.00
  0.29352405   0.04508863   0.00
  0.30866000   0.04509000   0.00
  0.32109367   0.04503262   0.00
  0.33094681   0.04494013   0.00
  0.33928000   0.04484000   0.00
  0.34733249   0.04474271   0.00
  0.35705827   0.04459085   0.00
  0.37059000   0.04431000   0.00
  0.38929712   0.04384541   0.00
  0.41149605   0.04322092   0.00
  0.43474000   0.04248000   0.00
  0.45709053   0.04165823   0.00
  0.47864272   0.04075955   0.00
  0.50000000   0.03978000   0.00
  0.52162964   0.03871797   0.00
  0.54345419   0.03758126   0.00
  0.56526000   0.03638000   0.00
  0.58686978   0.03512358   0.00
  0.60825163   0.03381838   0.00
  0.62941000   0.03247000   0.00
  0.65034013   0.03108437   0.00
  0.67100040   0.02966857   0.00
  0.69134000   0.02823000   0.00
  0.71131083   0.02677562   0.00
  0.73087566   0.02531067   0.00
  0.75000000   0.02384000   0.00
  0.76864916   0.02236872   0.00
  0.78678770   0.02090318   0.00
  0.80438000   0.01945000   0.00
  0.82139144   0.01801542   0.00
  0.83779133   0.01660403   0.00
  0.85355000   0.01522000   0.00
  0.86863769   0.01386738   0.00
  0.88302438   0.01254961   0.00
  0.89668000   0.01127000   0.00
  0.90957632   0.01003210   0.00
  0.92169261   0.00884050   0.00
  0.93301000   0.00770000   0.00
  0.94350813   0.00661532   0.00
  0.95316072   0.00559063   0.00
  0.96194000   0.00463000   0.00
  0.96982560   0.00373774   0.00
  0.97682674   0.00291920   0.00
  0.98296000   0.00218000   0.00
  0.98821982   0.00152854   0.00
  0.99251196   0.00098441   0.00
  0.99572000   0.00057000   0.00
  0.99781362   0.00029550   0.00
  0.99910690   0.00012240   0.00
  1.00000000   0.00000000   0.00
 -0.01022913   0.00000000   0.00
 -0.01346205   0.00822481   0.00
 -0.01256073   0.01632716   0.00
 -0.01124698   0.02420386   0.00
 -0.00947539   0.03194560   0.00
 -0.00726346   0.03966237   0.00
 -0.00462542   0.04743591   0.00
 -0.00156188   0.05523496   0.00
  0.00192980   0.06300003   0.00
  0.00585088   0.07068054   0.00
  0.01019752   0.07826146   0.00
  0.01496449   0.08573667   0.00
  0.02014705   0.09310024   0.00
  0.02574299   0.10034673   0.00
  0.03175061   0.10747085   0.00
  0.03816724   0.11446768   0.00
  0.04498693   0.12133326   0.00
  0.05220274   0.12806399   0.00
  0.05980818   0.13465678   0.00
  0.06779899   0.14111036   0.00
  0.07617137   0.14742398   0.00
  0.08492079   0.15359616   0.00
  0.09404043   0.15962220   0.00
  0.10352278   0.16549663   0.00
  0.11336024   0.17121416   0.00
  0.12354536   0.17676964   0.00
  0.13407060   0.18215807   0.00
  0.14492854   0.18737431   0.00
  0.15611259   0.19241218   0.00
  0.16761631   0.19726538   0.00
  0.17943275   0.20192780   0.00
  0.19155362   0.20639375   0.00
  0.20397016   0.21065772   0.00
  0.21667306   0.21471484   0.00
  0.22965120   0.21856206   0.00
  0.24289290   0.22219694   0.00
  0.25638844   0.22561692   0.00
  0.27013623   0.22881851   0.00
  0.28413662   0.23179808   0.00
  0.29838212   0.23455256   0.00
  0.31283410   0.23708043   0.00
  0.32744608   0.23938071   0.00
  0.34220017   0.24145224   0.00
  0.35719310   0.24329260   0.00
  0.37255018   0.24489919   0.00
  0.38829018   0.24626997   0.00
  0.40400582   0.24740468   0.00
  0.41918325   0.24830360   0.00
  0.43370489   0.24896716   0.00
  0.44903819   0.24939568   0.00
  0.46704685   0.24958960   0.00
  0.48800347   0.24953659   0.00
  0.50942091   0.24923458   0.00
  0.52815039   0.24867250   0.00
  0.54430611   0.24787424   0.00
  0.55893172   0.24686771   0.00
  0.57324779   0.24566417   0.00
  0.58918250   0.24420788   0.00
  0.60884098   0.24242645   0.00
  0.63357277   0.24026716   0.00
  0.66170503   0.23775530   0.00
  0.69080933   0.23493576   0.00
  0.71896061   0.23184582   0.00
  0.74624706   0.22849165   0.00
  0.77326021   0.22487175   0.00
  0.80045685   0.22098713   0.00
  0.82775460   0.21684832   0.00
  0.85493634   0.21246832   0.00
  0.88182103   0.20785957   0.00
  0.90837166   0.20303171   0.00
  0.93458733   0.19799378   0.00
  0.96045812   0.19275530   0.00
  0.98593777   0.18732710   0.00
  1.01097098   0.18172047   0.00
  1.03550533   0.17594643   0.00
  1.05949925   0.17001446   0.00
  1.08291402   0.16393376   0.00
  1.10571089   0.15771397   0.00
  1.12785049   0.15136606   0.00
  1.14929343   0.14490145   0.00
  1.17000146   0.13833124   0.00
  1.18994039   0.13166508   0.00
  1.20907718   0.12491229   0.00
  1.22737888   0.11808219   0.00
  1.24481246   0.11118362   0.00
  1.26134499   0.10422535   0.00
  1.27694556   0.09721654   0.00
  1.29159084   0.09016741   0.00
  1.30525953   0.08308853   0.00
  1.31792906   0.07599044   0.00
  1.32957115   0.06888321   0.00
  1.34015626   0.06177688   0.00
  1.34966235   0.05468179   0.00
  1.35809686   0.04760937   0.00
  1.36547474   0.04057137   0.00
  1.37178919   0.03358232   0.00
  1.37694581   0.02666788   0.00
  1.38082846   0.01985650   0.00
  1.38340642   0.01316460   0.00
  1.38499012   0.00656038   0.00
  1.01022913   0.00000000   0.00
 -0.02093057   0.00000000   0.00
 -0.03543436   0.01464598   0.00
 -0.03423571   0.02916431   0.00
 -0.03242485   0.04344645   0.00
 -0.02995733   0.05757576   0.00
 -0.02685117   0.07165473   0.00
 -0.02312137   0.08575794   0.00
 -0.01876964   0.09984810   0.00
 -0.01379465   0.11386005   0.00
 -0.00819667   0.12773748   0.00
 -0.00198118   0.14145931   0.00
  0.00484473   0.15501335   0.00
  0.01227431   0.16838765   0.00
  0.02030310   0.18157082   0.00
  0.02892696   0.19455171   0.00
  0.03814061   0.20731957   0.00
  0.04793531   0.21986474   0.00
  0.05830122   0.23217798   0.00
  0.06922871   0.24425065   0.00
  0.08071024   0.25607600   0.00
  0.09273848   0.26764795   0.00
  0.10530529   0.27895979   0.00
  0.11840005   0.29000169   0.00
  0.13201131   0.30076326   0.00
  0.14612738   0.31123438   0.00
  0.16073656   0.32140519   0.00
  0.17582694   0.33126614   0.00
  0.19138654   0.34080767   0.00
  0.20740411   0.35001934   0.00
  0.22386836   0.35889076   0.00
  0.24076744   0.36741185   0.00
  0.25808798   0.37557312   0.00
  0.27581606   0.38336545   0.00
  0.29393712   0.39078047   0.00
  0.31243466   0.39781181   0.00
  0.33129154   0.40445387   0.00
  0.35049248   0.41070114   0.00
  0.37003013   0.41654731   0.00
  0.38989898   0.42198616   0.00
  0.41008570   0.42701219   0.00
  0.43054603   0.43162162   0.00
  0.45122790   0.43581141   0.00
  0.47210746   0.43957853   0.00
  0.49327426   0.44291887   0.00
  0.51484611   0.44582837   0.00
  0.53683531   0.44830372   0.00
  0.55883235   0.45034354   0.00
  0.58032224   0.45194721   0.00
  0.60118220   0.45311444   0.00
  0.62285844   0.45384506   0.00
  0.64718945   0.45413920   0.00
  0.67443863   0.45398455   0.00
  0.70213756   0.45337916   0.00
  0.72716286   0.45231237   0.00
  0.74962115   0.45080836   0.00
  0.77053918   0.44889542   0.00
  0.79111883   0.44658563   0.00
  0.81326248   0.44382490   0.00
  0.83904770   0.44054290   0.00
  0.86980418   0.43668892   0.00
  0.90386975   0.43228967   0.00
  0.93883440   0.42739152   0.00
  0.97278644   0.42203342   0.00
  1.00580715   0.41622375   0.00
  1.03847616   0.40996349   0.00
  1.07123980   0.40325629   0.00
  1.10401076   0.39611537   0.00
  1.13656843   0.38855663   0.00
  1.16872802   0.38059556   0.00
  1.20044743   0.37224504   0.00
  1.23172040   0.36351757   0.00
  1.26253186   0.35442623   0.00
  1.29283088   0.34498563   0.00
  1.32255771   0.33521094   0.00
  1.35165557   0.32511724   0.00
  1.38007858   0.31471824   0.00
  1.40778379   0.30402751   0.00
  1.43472836   0.29305921   0.00
  1.46086902   0.28182895   0.00
  1.48616260   0.27035289   0.00
  1.51056722   0.25864706   0.00
  1.53404519   0.24672613   0.00
  1.55656010   0.23460459   0.00
  1.57807582   0.22229701   0.00
  1.59855628   0.20981762   0.00
  1.61796572   0.19718070   0.00
  1.63627054   0.18440097   0.00
  1.65344481   0.17149432   0.00
  1.66946481   0.15847707   0.00
  1.68430573   0.14536556   0.00
  1.69793732   0.13217579   0.00
  1.71032826   0.11892375   0.00
  1.72145484   0.10562584   0.00
  1.73132272   0.09229955   0.00
  1.73994522   0.07896274   0.00
  1.74731430   0.06563610   0.00
  1.75333540   0.05235135   0.00
  1.75789265   0.03914301   0.00
  1.76095495   0.02603371   0.00
  1.76282910   0.01299836   0.00
  1.02093057   0.00000000   0.00
 -0.03212614   0.00000000   0.00
 -0.06544308   0.02106715   0.00
 -0.06394711   0.04200147   0.00
 -0.06163914   0.06268904   0.00
 -0.05847569   0.08320592   0.00
 -0.05447530   0.10364710   0.00
 -0.04965374   0.12407997   0.00
 -0.04401381   0.14446125   0.00
 -0.03755552   0.16472008   0.00
 -0.03028064   0.18479442   0.00
 -0.02219631   0.20465715   0.00
 -0.01331144   0.22429002   0.00
 -0.00363485   0.24367505   0.00
  0.00682679   0.26279491   0.00
  0.01806689   0.28163256   0.00
  0.03007755   0.30017147   0.00
  0.04284728   0.31839623   0.00
  0.05636328   0.33629197   0.00
  0.07061283   0.35384451   0.00
  0.08558506   0.37104165   0.00
  0.10126918   0.38787193   0.00
  0.11765337   0.40432341   0.00
  0.13472325   0.42038118   0.00
  0.15246342   0.43602990   0.00
  0.17085810   0.45125459   0.00
  0.18989135   0.46604074   0.00
  0.20954686   0.48037421   0.00
  0.22980812   0.49424103   0.00
  0.25065920   0.50762651   0.00
  0.27208399   0.52051613   0.00
  0.29406570   0.53289589   0.00
  0.31658591   0.54475249   0.00
  0.33962555   0.55607317   0.00
  0.36316476   0.56684609   0.00
  0.38718170   0.57706155   0.00
  0.41165377   0.58671081   0.00
  0.43656011   0.59578536   0.00
  0.46188761   0.60427611   0.00
  0.48762493   0.61217424   0.00
  0.51375286   0.61947181   0.00
  0.54022155   0.62616281   0.00
  0.56697330   0.63224212   0.00
  0.59397832   0.63770482   0.00
  0.62131900   0.64254515   0.00
  0.64910562   0.64675756   0.00
  0.67734401   0.65033747   0.00
  0.70562247   0.65328239   0.00
  0.73342482   0.65559081   0.00
  0.76062309   0.65726172   0.00
  0.78864228   0.65829444   0.00
  0.81929563   0.65868880   0.00
  0.85283737   0.65843251   0.00
  0.88681780   0.65752374   0.00
  0.91813890   0.65595225   0.00
  0.94689978   0.65374247   0.00
  0.97411022   0.65092313   0.00
  1.00095345   0.64750709   0.00
  1.02930604   0.64344193   0.00
  1.06121801   0.63865934   0.00
  1.09799916   0.63311067   0.00
  1.13799805   0.62682405   0.00
  1.17882305   0.61984727   0.00
  1.21857584   0.61222102   0.00
  1.25733082   0.60395586   0.00
  1.29565569   0.59505524   0.00
  1.33398634   0.58552545   0.00
  1.37223050   0.57538243   0.00
  1.41016410   0.56464495   0.00
  1.44759859   0.55333155   0.00
  1.48448679   0.54145838   0.00
  1.52081706   0.52904135   0.00
  1.55656919   0.51609717   0.00
  1.59168757   0.50264416   0.00
  1.62610803   0.48870141   0.00
  1.65976940   0.47428805   0.00
  1.69262149   0.45942202   0.00
  1.72461713   0.44412127   0.00
  1.75570942   0.42840446   0.00
  1.78585114   0.41229184   0.00
  1.81499536   0.39580434   0.00
  1.84309657   0.37896289   0.00
  1.87011357   0.36178718   0.00
  1.89600660   0.34429688   0.00
  1.92073633   0.32651183   0.00
  1.94426369   0.30845163   0.00
  1.96655004   0.29013606   0.00
  1.98755910   0.27158541   0.00
  2.00726236   0.25282123   0.00
  2.02563367   0.23386560   0.00
  2.04264599   0.21474068   0.00
  2.05826708   0.19546836   0.00
  2.07246384   0.17607063   0.00
  2.08521091   0.15656989   0.00
  2.09651217   0.13698972   0.00
  2.10637929   0.11735411   0.00
  2.11480299   0.09768988   0.00
  2.12168857   0.07803482   0.00
  2.12692044   0.05842951   0.00
  2.13046708   0.03890281   0.00
  2.13263165   0.01943635   0.00
  1.03212614   0.00000000   0.00
 -0.04383864   0.00000000   0.00
 -0.10347957   0.02748832   0.00
 -0.10168627   0.05483863   0.00
 -0.09888119   0.08193163   0.00
 -0.09502180   0.10883607   0.00
 -0.09012719   0.13563946   0.00
 -0.08421387   0.16240200   0.00
 -0.07728574   0.18907440   0.00
 -0.06934414   0.21558011   0.00
 -0.06039236   0.24185136   0.00
 -0.05043920   0.26785500   0.00
 -0.03949538   0.29356669   0.00
 -0.02757176   0.31896246   0.00
 -0.01467727   0.34401900   0.00
 -0.00082094   0.36871342   0.00
  0.01398674   0.39302336   0.00
  0.02973149   0.41692772   0.00
  0.04639759   0.44040596   0.00
  0.06396920   0.46343837   0.00
  0.08243213   0.48600729   0.00
  0.10177211   0.50809591   0.00
  0.12197369   0.52968703   0.00
  0.14301869   0.55076067   0.00
  0.16488777   0.57129653   0.00
  0.18756107   0.59127481   0.00
  0.21101838   0.61067629   0.00
  0.23523902   0.62948227   0.00
  0.26020195   0.64767439   0.00
  0.28588653   0.66523367   0.00
  0.31227186   0.68214151   0.00
  0.33933621   0.69837994   0.00
  0.36705609   0.71393187   0.00
  0.39540728   0.72878090   0.00
  0.42436465   0.74291171   0.00
  0.45390098   0.75631130   0.00
  0.48398824   0.76896775   0.00
  0.51459997   0.78086958   0.00
  0.54571733   0.79200491   0.00
  0.57732311   0.80236232   0.00
  0.60939227   0.81193144   0.00
  0.64186931   0.82070401   0.00
  0.67469094   0.82867282   0.00
  0.70782143   0.83583111   0.00
  0.74133597   0.84217142   0.00
  0.77533737   0.84768675   0.00
  0.80982496   0.85237122   0.00
  0.84438482   0.85622125   0.00
  0.87849963   0.85923441   0.00
  0.91203622   0.86140900   0.00
  0.94639836   0.86274383   0.00
  0.98337405   0.86323840   0.00
  1.02320836   0.86288047   0.00
  1.06347027   0.86166832   0.00
  1.10108719   0.85959212   0.00
  1.13615064   0.85667658   0.00
  1.16965351   0.85295084   0.00
  1.20276031   0.84842855   0.00
  1.23732184   0.84305896   0.00
  1.27536056   0.83677579   0.00
  1.31816639   0.82953242   0.00
  1.36409859   0.82135843   0.00
  1.41078394   0.81230303   0.00
  1.45633749   0.80240862   0.00
  1.50082673   0.79168796   0.00
  1.54480747   0.78014698   0.00
  1.58870512   0.76779460   0.00
  1.63242248   0.75464949   0.00
  1.67573201   0.74073326   0.00
  1.71844141   0.72606754   0.00
  1.76049838   0.71067171   0.00
  1.80188595   0.69456514   0.00
  1.84257875   0.67776810   0.00
  1.88251650   0.66030269   0.00
  1.92163058   0.64219188   0.00
  1.95985547   0.62345887   0.00
  1.99713664   0.60412581   0.00
  2.03342272   0.58421503   0.00
  2.06866271   0.56374970   0.00
  2.10280550   0.54275472   0.00
  2.13580036   0.52125578   0.00
  2.16759816   0.49927871   0.00
  2.19815420   0.47684823   0.00
  2.22742535   0.45398917   0.00
  2.25536909   0.43072664   0.00
  2.28194333   0.40708564   0.00
  2.30710660   0.38309141   0.00
  2.33081990   0.35876984   0.00
  2.35305215   0.33414815   0.00
  2.37377477   0.30925413   0.00
  2.39295848   0.28411580   0.00
  2.41056908   0.25876094   0.00
  2.42657167   0.23321751   0.00
  2.44093922   0.20751394   0.00
  2.45367386   0.18167989   0.00
  2.46478559   0.15574548   0.00
  2.47426392   0.12974366   0.00
  2.48201399   0.10371829   0.00
  2.48792046   0.07771602   0.00
  2.49195144   0.05177191   0.00
  2.49440645   0.02587433   0.00
  1.04383864   0.00000000   0.00
 -0.05609195   0.00000000   0.00
 -0.14953428   0.03390949   0.00
 -0.14744365   0.06767578   0.00
 -0.14414146   0.10117423   0.00
 -0.13958615   0.13446623   0.00
 -0.13379731   0.16763183   0.00
 -0.12679223   0.20072403   0.00
 -0.11857590   0.23368754   0.00
 -0.10915100   0.26644013   0.00
 -0.09852232   0.29890830   0.00
 -0.08670031   0.33105285   0.00
 -0.07369755   0.36284337   0.00
 -0.05952690   0.39424986   0.00
 -0.04419956   0.42524309   0.00
 -0.02772699   0.45579427   0.00
 -0.01012230   0.48587526   0.00
  0.00859747   0.51545920   0.00
  0.02841366   0.54451995   0.00
  0.04930733   0.57303224   0.00
  0.07126097   0.60097294   0.00
  0.09425682   0.62831988   0.00
  0.11827579   0.65505065   0.00
  0.14329590   0.68114016   0.00
  0.16929390   0.70656316   0.00
  0.19624580   0.73129503   0.00
  0.22412719   0.75531183   0.00
  0.25291296   0.77859034   0.00
  0.28257754   0.80110775   0.00
  0.31309564   0.82284084   0.00
  0.34444151   0.84376689   0.00
  0.37658849   0.86386399   0.00
  0.40950804   0.88311124   0.00
  0.44317078   0.90148862   0.00
  0.47754630   0.91897734   0.00
  0.51260204   0.93556105   0.00
  0.54830448   0.95122469   0.00
  0.58462161   0.96595380   0.00
  0.62152883   0.97973371   0.00
  0.65900308   0.99255040   0.00
  0.69701345   1.00439107   0.00
  0.73549884   1.01524520   0.00
  0.77439036   1.02510353   0.00
  0.81364631   1.03395739   0.00
  0.85333473   1.04179769   0.00
  0.89355089   1.04861593   0.00
  0.93428768   1.05440496   0.00
  0.97512895   1.05916010   0.00
  1.01555622   1.06287801   0.00
  1.05543112   1.06555628   0.00
  1.09613621   1.06719321   0.00
  1.13943424   1.06778800   0.00
  1.18556112   1.06732843   0.00
  1.23210452   1.06581290   0.00
  1.27601725   1.06323200   0.00
  1.31738328   1.05961069   0.00
  1.35717857   1.05497855   0.00
  1.39654895   1.04935001   0.00
  1.43731942   1.04267599   0.00
  1.48148488   1.03489224   0.00
  1.53031539   1.02595417   0.00
  1.58218091   1.01589280   0.00
  1.63472661   1.00475879   0.00
  1.68608091   0.99259621   0.00
  1.73630441   0.97942006   0.00
  1.78594102   0.96523873   0.00
  1.83540567   0.95006376   0.00
  1.88459624   0.93391654   0.00
  1.93328169   0.91682158   0.00
  1.98126600   0.89880353   0.00
  2.02849175   0.87988505   0.00
  2.07493663   0.86008892   0.00
  2.12057009   0.83943904   0.00
  2.16532721   0.81796122   0.00
  2.20913490   0.79568235   0.00
  2.25192331   0.77262968   0.00
  2.29363357   0.74882959   0.00
  2.33421009   0.72430878   0.00
  2.37359779   0.69909495   0.00
  2.41174163   0.67321761   0.00
  2.44858713   0.64670723   0.00
  2.48408153   0.61959453   0.00
  2.51817660   0.59190929   0.00
  2.55082587   0.56368146   0.00
  2.58198363   0.53494146   0.00
  2.61160475   0.50571965   0.00
  2.63964493   0.47604676   0.00
  2.66606248   0.44595427   0.00
  2.69082372   0.41547506   0.00
  2.71389764   0.38464267   0.00
  2.73525275   0.35349092   0.00
  2.75485285   0.32205352   0.00
  2.77266127   0.29036438   0.00
  2.78864931   0.25845799   0.00
  2.80281732   0.22637006   0.00
  2.81517367   0.19413685   0.00
  2.82570662   0.16179744   0.00
  2.83432118   0.12940176   0.00
  2.84090226   0.09700252   0.00
  2.84541758   0.06464101   0.00
  2.84816302   0.03231231   0.00
  1.05609195   0.00000000   0.00
 -0.06891104   0.00000000   0.00
 -0.20359674   0.04033066   0.00
 -0.20120879   0.08051294   0.00
 -0.19740949   0.12041682   0.00
 -0.19215824   0.16009639   0.00
 -0.18547517   0.19962419   0.00
 -0.17737833   0.23904606   0.00
 -0.16787381   0.27830069   0.00
 -0.15696560   0.31730016   0.00
 -0.14466002   0.35596524   0.00
 -0.13096917   0.39425070   0.00
 -0.11590746   0.43212004   0.00
 -0.09948979   0.46953727   0.00
 -0.08172960   0.50646718   0.00
 -0.06264079   0.54287513   0.00
 -0.04223909   0.57872715   0.00
 -0.02054430   0.61399069   0.00
  0.00242199   0.64863394   0.00
  0.02663772   0.68262610   0.00
  0.05208206   0.71593859   0.00
  0.07873378   0.74854386   0.00
  0.10657013   0.78041427   0.00
  0.13556536   0.81151965   0.00
  0.16569227   0.84182979   0.00
  0.19692279   0.87131525   0.00
  0.22922824   0.89994738   0.00
  0.26257915   0.92769841   0.00
  0.29694539   0.95454110   0.00
  0.33229700   0.98044800   0.00
  0.36860341   1.00539227   0.00
  0.40583301   1.02934803   0.00
  0.44395224   1.05229062   0.00
  0.48292653   1.07419635   0.00
  0.52272021   1.09504296   0.00
  0.56329534   1.11481079   0.00
  0.60461297   1.13348162   0.00
  0.64663550   1.15103802   0.00
  0.68933257   1.16746251   0.00
  0.73267529   1.18273848   0.00
  0.77662687   1.19685070   0.00
  0.82112062   1.20978639   0.00
  0.86608202   1.22153423   0.00
  0.91146344   1.23208368   0.00
  0.95732573   1.24142397   0.00
  1.00375667   1.24954512   0.00
  1.05074265   1.25643871   0.00
  1.09786533   1.26209896   0.00
  1.14460506   1.26652162   0.00
  1.19081827   1.26970357   0.00
  1.23786631   1.27164259   0.00
  1.28748669   1.27233760   0.00
  1.33990613   1.27177639   0.00
  1.39273102   1.26995748   0.00
  1.44293956   1.26687188   0.00
  1.49060817   1.26254481   0.00
  1.53669588   1.25700626   0.00
  1.58232984   1.25027147   0.00
  1.62930924   1.24229301   0.00
  1.67960145   1.23300869   0.00
  1.73445663   1.22237592   0.00
  1.79225548   1.21042718   0.00
  1.85066153   1.19721455   0.00
  1.90781659   1.18278381   0.00
  1.96377435   1.16715216   0.00
  2.01906681   1.15033047   0.00
  2.07409847   1.13233292   0.00
  2.12876224   1.11318360   0.00
  2.18282363   1.09290989   0.00
  2.23608284   1.07153951   0.00
  2.28847737   1.04909838   0.00
  2.33997955   1.02561270   0.00
  2.39055368   1.00110997   0.00
  2.44013017   0.97561975   0.00
  2.48863148   0.94917282   0.00
  2.53598340   0.92180049   0.00
  2.58212275   0.89353337   0.00
  2.62698970   0.86440254   0.00
  2.67052511   0.83444019   0.00
  2.71267001   0.80368049   0.00
  2.75336615   0.77215868   0.00
  2.79255714   0.73991035   0.00
  2.83019124   0.70697034   0.00
  2.86621863   0.67337376   0.00
  2.90059041   0.63915628   0.00
  2.93325842   0.60435365   0.00
  2.96417551   0.56900211   0.00
  2.99329730   0.53313871   0.00
  3.02058753   0.49680197   0.00
  3.04601276   0.46003120   0.00
  3.06953927   0.42286604   0.00
  3.09112888   0.38534610   0.00
  3.11074312   0.34751126   0.00
  3.12835164   0.30940204   0.00
  3.14395304   0.27106024   0.00
  3.15755400   0.23252822   0.00
  3.16914158   0.19385122   0.00
  3.17862061   0.15508523   0.00
  3.18587630   0.11628903   0.00
  3.19087596   0.07751011   0.00
  3.19391184   0.03875029   0.00
  1.06891104   0.00000000   0.00
 -0.08232203   0.00000000   0.00
 -0.26565547   0.04675183   0.00
 -0.26297020   0.09335010   0.00
 -0.25867379   0.13965941   0.00
 -0.25272660   0.18572655   0.00
 -0.24514931   0.23161656   0.00
 -0.23596071   0.27736809   0.00
 -0.22516799   0.32291384   0.00
 -0.21277648   0.36816019   0.00
 -0.19879400   0.41302218   0.00
 -0.18323430   0.45744854   0.00
 -0.16611365   0.50139672   0.00
 -0.14744896   0.54482467   0.00
 -0.12725592   0.58769127   0.00
 -0.10555086   0.62995598   0.00
 -0.08235216   0.67157905   0.00
 -0.05768234   0.71252217   0.00
 -0.03156595   0.75274793   0.00
 -0.00402817   0.79221996   0.00
  0.02490688   0.83090423   0.00
  0.05521447   0.86876784   0.00
  0.08686821   0.90577789   0.00
  0.11983856   0.94189914   0.00
  0.15409437   0.97709643   0.00
  0.18960351   1.01133546   0.00
  0.22633303   1.04458293   0.00
  0.26424906   1.07680648   0.00
  0.30331697   1.10797446   0.00
  0.34350208   1.13805517   0.00
  0.38476904   1.16701764   0.00
  0.42708127   1.19483208   0.00
  0.47040017   1.22146999   0.00
  0.51468601   1.24690407   0.00
  0.55989784   1.27110858   0.00
  0.60599238   1.29406054   0.00
  0.65292519   1.31573856   0.00
  0.70065311   1.33612223   0.00
  0.74914005   1.35519131   0.00
  0.79835122   1.37292656   0.00
  0.84824403   1.38931033   0.00
  0.89874613   1.40432759   0.00
  0.94977742   1.41796494   0.00
  1.00128430   1.43020997   0.00
  1.05332046   1.44105024   0.00
  1.10596617   1.45047430   0.00
  1.15920135   1.45847246   0.00
  1.21260544   1.46503781   0.00
  1.26565763   1.47016522   0.00
  1.31820916   1.47385085   0.00
  1.37160014   1.47609197   0.00
  1.42754286   1.47688720   0.00
  1.48625486   1.47622434   0.00
  1.54536125   1.47410206   0.00
  1.60186560   1.47051175   0.00
  1.65583678   1.46547892   0.00
  1.70821691   1.45903397   0.00
  1.76011446   1.45119293   0.00
  1.81330280   1.44191004   0.00
  1.86972175   1.43112514   0.00
  1.93060161   1.41879767   0.00
  1.99433377   1.40496156   0.00
  2.05860017   1.38967030   0.00
  2.12155599   1.37297141   0.00
  2.18324801   1.35488427   0.00
  2.24419634   1.33542222   0.00
  2.30479499   1.31460208   0.00
  2.36493198   1.29245066   0.00
  2.42436929   1.26899821   0.00
  2.48290340   1.24427550   0.00
  2.54046672   1.21831171   0.00
  2.59702619   1.19113649   0.00
  2.65254100   1.16278090   0.00
  2.70693685   1.13327827   0.00
  2.76013178   1.10266328   0.00
  2.81204722   1.07097130   0.00
  2.86261565   1.03823716   0.00
  2.91177304   1.00449630   0.00
  2.95945616   0.96978544   0.00
  3.00560212   0.93414338   0.00
  3.05014890   0.89761012   0.00
  3.09303648   0.86022618   0.00
  3.13420962   0.82203139   0.00
  3.17361513   0.78306605   0.00
  3.21120092   0.74337109   0.00
  3.24691582   0.70298766   0.00
  3.28070982   0.66195747   0.00
  3.31253586   0.62032314   0.00
  3.34235508   0.57812888   0.00
  3.37013161   0.53541973   0.00
  3.39582952   0.49224116   0.00
  3.41940863   0.44863867   0.00
  3.44082870   0.40465814   0.00
  3.46005771   0.36034609   0.00
  3.47709248   0.31575041   0.00
  3.49193806   0.27091959   0.00
  3.50458026   0.22590500   0.00
  3.51492378   0.18076870   0.00
  3.52285408   0.13557553   0.00
  3.52833808   0.09037921   0.00
  3.53166438   0.04518827   0.00
  1.08232203   0.00000000   0.00
 -0.09635224   0.00000000   0.00
 -0.33569792   0.05317300   0.00
 -0.33271532   0.10618725   0.00
 -0.32792180   0.15890200   0.00
 -0.32127868   0.21135671   0.00
 -0.31280716   0.26360892   0.00
 -0.30252680   0.31569012   0.00
 -0.29044589   0.36752698   0.00
 -0.27657107   0.41902021   0.00
 -0.26091169   0.47007912   0.00
 -0.24348315   0.52064639   0.00
 -0.22430355   0.57067339   0.00
 -0.20339183   0.62011208   0.00
 -0.18076594   0.66891537   0.00
 -0.15644465   0.71703684   0.00
 -0.13044893   0.76443094   0.00
 -0.10280410   0.81105366   0.00
 -0.07353761   0.85686192   0.00
 -0.04267777   0.90181383   0.00
 -0.01025202   0.94586988   0.00
  0.02371144   0.98899181   0.00
  0.05918257   1.03114151   0.00
  0.09612803   1.07227863   0.00
  0.13451276   1.11236306   0.00
  0.17430051   1.15135568   0.00
  0.21545410   1.18921848   0.00
  0.25793526   1.22591455   0.00
  0.30170483   1.26140782   0.00
  0.34672345   1.29566233   0.00
  0.39295095   1.32864302   0.00
  0.44034581   1.36031613   0.00
  0.48886439   1.39064936   0.00
  0.53846177   1.41961180   0.00
  0.58909176   1.44717421   0.00
  0.64070570   1.47331028   0.00
  0.69325369   1.49799550   0.00
  0.74668701   1.52120645   0.00
  0.80096380   1.54292012   0.00
  0.85604345   1.56311464   0.00
  0.91187747   1.58176996   0.00
  0.96838792   1.59886878   0.00
  1.02548910   1.61439564   0.00
  1.08312144   1.62833626   0.00
  1.14133147   1.64067651   0.00
  1.20019196   1.65140349   0.00
  1.25967633   1.66050621   0.00
  1.31936184   1.66797667   0.00
  1.37872648   1.67380882   0.00
  1.43761632   1.67799813   0.00
  1.49735026   1.68054135   0.00
  1.55961531   1.68143680   0.00
  1.62461989   1.68067230   0.00
  1.69000777   1.67824663   0.00
  1.75280793   1.67415163   0.00
  1.81308169   1.66841303   0.00
  1.87175424   1.66106168   0.00
  1.92991536   1.65211439   0.00
  1.98931263   1.64152707   0.00
  2.05185833   1.62924158   0.00
  2.11876287   1.61521942   0.00
  2.18842835   1.59949593   0.00
  2.25855510   1.58212606   0.00
  2.32731167   1.56315901   0.00
  2.39473796   1.54261637   0.00
  2.46134215   1.52051397   0.00
  2.52750781   1.49687124   0.00
  2.59311800   1.47171771   0.00
  2.65793124   1.44508652   0.00
  2.72174026   1.41701149   0.00
  2.78447235   1.38752505   0.00
  2.84608913   1.35666027   0.00
  2.90654460   1.32445184   0.00
  2.96575983   1.29093680   0.00
  3.02364837   1.25615375   0.00
  3.08012733   1.22014212   0.00
  3.13512484   1.18294094   0.00
  3.18857266   1.14459005   0.00
  3.24040349   1.10513068   0.00
  3.29055051   1.06460627   0.00
  3.33894793   1.02306157   0.00
  3.38553211   0.98054200   0.00
  3.43024428   0.93709244   0.00
  3.47302791   0.89275834   0.00
  3.51382771   0.84758591   0.00
  3.55258950   0.80162167   0.00
  3.58926041   0.75491282   0.00
  3.62379070   0.70750757   0.00
  3.65613890   0.65945580   0.00
  3.68626675   0.61080827   0.00
  3.71413605   0.56161628   0.00
  3.73970466   0.51193125   0.00
  3.76293056   0.46180501   0.00
  3.78378005   0.41129013   0.00
  3.80224820   0.36044058   0.00
  3.81833841   0.30931096   0.00
  3.83203523   0.25795878   0.00
  3.84324323   0.20645216   0.00
  3.85184814   0.15486203   0.00